# vtk DataFile Version 2.0
t=0
ASCII
DATASET UNSTRUCTURED_GRID
POINTS 92 float
1 0 6.12323e-17
0.447214 0 -0.894427
0.447214 0.850651 -0.276393
0.447214 0.525731 0.723607
0.447214 -0.525731 0.723607
0.447214 -0.850651 -0.276393
-1 0 -6.12323e-17
-0.447214 0.525731 -0.723607
-0.447214 0.850651 0.276393
-0.447214 0 0.894427
-0.447214 -0.850651 0.276393
-0.447214 -0.525731 -0.723607
0.739749 0 -0.672883
0.932671 0 -0.360729
0.156077 0.212031 -0.964719
-0.156077 0.395511 -0.905103
0.739749 0.63995 -0.207932
0.932671 0.343074 -0.111471
0.156077 0.983024 -0.0964608
-0.156077 0.983024 0.0964608
0.739749 0.395511 0.544374
0.932671 0.212031 0.291836
0.156077 0.395511 0.905103
-0.156077 0.212031 0.964719
0.739749 -0.395511 0.544374
0.932671 -0.212031 0.291836
0.156077 -0.738585 0.655845
-0.156077 -0.851981 0.499768
0.739749 -0.63995 -0.207932
0.932671 -0.343074 -0.111471
0.156077 -0.851981 -0.499768
-0.156077 -0.738585 -0.655845
-0.156077 0.738585 -0.655845
0.156077 0.851981 -0.499768
-0.739749 0.395511 -0.544374
-0.932671 0.212031 -0.291836
-0.156077 0.851981 0.499768
0.156077 0.738585 0.655845
-0.739749 0.63995 0.207932
-0.932671 0.343074 0.111471
-0.156077 -0.212031 0.964719
0.156077 -0.395511 0.905103
-0.739749 0 0.672883
-0.932671 0 0.360729
-0.156077 -0.983024 0.0964608
0.156077 -0.983024 -0.0964608
-0.739749 -0.63995 0.207932
-0.932671 -0.343074 0.111471
-0.156077 -0.395511 -0.905103
0.156077 -0.212031 -0.964719
-0.739749 -0.395511 -0.544374
-0.932671 -0.212031 -0.291836
0.516806 0.343074 -0.784354
0.789079 0.373531 -0.487677
0.196377 0.563693 -0.802301
0.516806 0.63995 -0.568661
0.516806 0.851981 0.0839037
0.789079 0.579236 0.204548
0.196377 0.937224 0.288179
0.516806 0.738585 0.432902
0.516806 0.183479 0.83621
0.789079 -0.0155433 0.614095
0.196377 0.0155433 0.980405
0.516806 -0.183479 0.83621
0.516806 -0.738585 0.432902
0.789079 -0.588843 0.174983
0.196377 -0.927618 0.317744
0.516806 -0.851981 0.0839037
0.516806 -0.63995 -0.568661
0.789079 -0.348381 -0.50595
0.196377 -0.588843 -0.784028
0.516806 -0.343074 -0.784354
-0.516806 0.738585 -0.432902
-0.196377 0.937224 -0.288179
-0.789079 0.579236 -0.204548
-0.516806 0.851981 -0.0839037
-0.516806 0.63995 0.568661
-0.196377 0.563693 0.802301
-0.789079 0.373531 0.487677
-0.516806 0.343074 0.784354
-0.516806 -0.343074 0.784354
-0.196377 -0.588843 0.784028
-0.789079 -0.348381 0.50595
-0.516806 -0.63995 0.568661
-0.516806 -0.851981 -0.0839037
-0.196377 -0.927618 -0.317744
-0.789079 -0.588843 -0.174983
-0.516806 -0.738585 -0.432902
-0.516806 -0.183479 -0.83621
-0.196377 0.0155433 -0.980405
-0.789079 -0.0155433 -0.614095
-0.516806 0.183479 -0.83621
CELLS 180 720
3 14 52 1
3 1 52 12
3 52 53 12
3 12 53 13
3 53 17 13
3 13 17 0
3 15 54 14
3 14 54 52
3 54 55 52
3 52 55 53
3 55 16 53
3 53 16 17
3 32 15 7
3 15 32 54
3 33 54 32
3 54 33 55
3 2 55 33
3 55 2 16
3 18 56 2
3 2 56 16
3 56 57 16
3 16 57 17
3 57 21 17
3 17 21 0
3 19 58 18
3 18 58 56
3 58 59 56
3 56 59 57
3 59 20 57
3 57 20 21
3 36 19 8
3 19 36 58
3 37 58 36
3 58 37 59
3 3 59 37
3 59 3 20
3 22 60 3
3 3 60 20
3 60 61 20
3 20 61 21
3 61 25 21
3 21 25 0
3 23 62 22
3 22 62 60
3 62 63 60
3 60 63 61
3 63 24 61
3 61 24 25
3 40 23 9
3 23 40 62
3 41 62 40
3 62 41 63
3 4 63 41
3 63 4 24
3 26 64 4
3 4 64 24
3 64 65 24
3 24 65 25
3 65 29 25
3 25 29 0
3 27 66 26
3 26 66 64
3 66 67 64
3 64 67 65
3 67 28 65
3 65 28 29
3 44 27 10
3 27 44 66
3 45 66 44
3 66 45 67
3 5 67 45
3 67 5 28
3 30 68 5
3 5 68 28
3 68 69 28
3 28 69 29
3 69 13 29
3 29 13 0
3 31 70 30
3 30 70 68
3 70 71 68
3 68 71 69
3 71 12 69
3 69 12 13
3 48 31 11
3 31 48 70
3 49 70 48
3 70 49 71
3 1 71 49
3 71 1 12
3 34 72 7
3 7 72 32
3 72 73 32
3 32 73 33
3 73 18 33
3 33 18 2
3 35 74 34
3 34 74 72
3 74 75 72
3 72 75 73
3 75 19 73
3 73 19 18
3 39 35 6
3 35 39 74
3 38 74 39
3 74 38 75
3 8 75 38
3 75 8 19
3 38 76 8
3 8 76 36
3 76 77 36
3 36 77 37
3 77 22 37
3 37 22 3
3 39 78 38
3 38 78 76
3 78 79 76
3 76 79 77
3 79 23 77
3 77 23 22
3 43 39 6
3 39 43 78
3 42 78 43
3 78 42 79
3 9 79 42
3 79 9 23
3 42 80 9
3 9 80 40
3 80 81 40
3 40 81 41
3 81 26 41
3 41 26 4
3 43 82 42
3 42 82 80
3 82 83 80
3 80 83 81
3 83 27 81
3 81 27 26
3 47 43 6
3 43 47 82
3 46 82 47
3 82 46 83
3 10 83 46
3 83 10 27
3 46 84 10
3 10 84 44
3 84 85 44
3 44 85 45
3 85 30 45
3 45 30 5
3 47 86 46
3 46 86 84
3 86 87 84
3 84 87 85
3 87 31 85
3 85 31 30
3 51 47 6
3 47 51 86
3 50 86 51
3 86 50 87
3 11 87 50
3 87 11 31
3 50 88 11
3 11 88 48
3 88 89 48
3 48 89 49
3 89 14 49
3 49 14 1
3 51 90 50
3 50 90 88
3 90 91 88
3 88 91 89
3 91 15 89
3 89 15 14
3 35 51 6
3 51 35 90
3 34 90 35
3 90 34 91
3 7 91 34
3 91 7 15
CELL_TYPES 180
5
5
5
5
5
5
5
5
5
5
5
5
5
5
5
5
5
5
5
5
5
5
5
5
5
5
5
5
5
5
5
5
5
5
5
5
5
5
5
5
5
5
5
5
5
5
5
5
5
5
5
5
5
5
5
5
5
5
5
5
5
5
5
5
5
5
5
5
5
5
5
5
5
5
5
5
5
5
5
5
5
5
5
5
5
5
5
5
5
5
5
5
5
5
5
5
5
5
5
5
5
5
5
5
5
5
5
5
5
5
5
5
5
5
5
5
5
5
5
5
5
5
5
5
5
5
5
5
5
5
5
5
5
5
5
5
5
5
5
5
5
5
5
5
5
5
5
5
5
5
5
5
5
5
5
5
5
5
5
5
5
5
5
5
5
5
5
5
5
5
5
5
5
5
5
5
5
5
5
5
CELL_DATA 180
SCALARS ds float
LOOKUP_TABLE default
0.0635038
0.0635038
0.0748052
0.0692851
0.0748052
0.0635038
0.0644708
0.069264
0.0644708
0.0644708
0.069264
0.0644708
0.0635038
0.0748052
0.0692851
0.0748052
0.0635038
0.0635038
0.0635038
0.0635038
0.0748052
0.0692851
0.0748052
0.0635038
0.0644708
0.069264
0.0644708
0.0644708
0.069264
0.0644708
0.0635038
0.0748052
0.0692851
0.0748052
0.0635038
0.0635038
0.0635038
0.0635038
0.0748052
0.0692851
0.0748052
0.0635038
0.0644708
0.069264
0.0644708
0.0644708
0.069264
0.0644708
0.0635038
0.0748052
0.0692851
0.0748052
0.0635038
0.0635038
0.0635038
0.0635038
0.0748052
0.0692851
0.0748052
0.0635038
0.0644708
0.069264
0.0644708
0.0644708
0.069264
0.0644708
0.0635038
0.0748052
0.0692851
0.0748052
0.0635038
0.0635038
0.0635038
0.0635038
0.0748052
0.0692851
0.0748052
0.0635038
0.0644708
0.069264
0.0644708
0.0644708
0.069264
0.0644708
0.0635038
0.0748052
0.0692851
0.0748052
0.0635038
0.0635038
0.0635038
0.0635038
0.0748052
0.0692851
0.0748052
0.0635038
0.0644708
0.069264
0.0644708
0.0644708
0.069264
0.0644708
0.0635038
0.0748052
0.0692851
0.0748052
0.0635038
0.0635038
0.0635038
0.0635038
0.0748052
0.0692851
0.0748052
0.0635038
0.0644708
0.069264
0.0644708
0.0644708
0.069264
0.0644708
0.0635038
0.0748052
0.0692851
0.0748052
0.0635038
0.0635038
0.0635038
0.0635038
0.0748052
0.0692851
0.0748052
0.0635038
0.0644708
0.069264
0.0644708
0.0644708
0.069264
0.0644708
0.0635038
0.0748052
0.0692851
0.0748052
0.0635038
0.0635038
0.0635038
0.0635038
0.0748052
0.0692851
0.0748052
0.0635038
0.0644708
0.069264
0.0644708
0.0644708
0.069264
0.0644708
0.0635038
0.0748052
0.0692851
0.0748052
0.0635038
0.0635038
0.0635038
0.0635038
0.0748052
0.0692851
0.0748052
0.0635038
0.0644708
0.069264
0.0644708
0.0644708
0.069264
0.0644708
0.0635038
0.0748052
0.0692851
0.0748052
0.0635038
0.0635038
