# vtk DataFile Version 2.0
t=0
ASCII
DATASET UNSTRUCTURED_GRID
POINTS 642 float
1 0 6.12323e-17
0.447214 0 -0.894427
0.447214 0.850651 -0.276393
0.447214 0.525731 0.723607
0.447214 -0.525731 0.723607
0.447214 -0.850651 -0.276393
-1 0 -6.12323e-17
-0.447214 0.525731 -0.723607
-0.447214 0.850651 0.276393
-0.447214 0 0.894427
-0.447214 -0.850651 0.276393
-0.447214 -0.525731 -0.723607
0.566326 0 -0.824181
0.674609 0 -0.738175
0.769992 0 -0.638054
0.850651 0 -0.525731
0.915043 0 -0.403355
0.961938 0 -0.273267
0.990439 0 -0.137952
0.343115 0.0810863 -0.935787
0.232454 0.160622 -0.959253
0.117349 0.237086 -0.964375
-8.05425e-17 0.309017 -0.951057
-0.117349 0.375039 -0.919552
-0.232454 0.433889 -0.870463
-0.343115 0.484442 -0.804729
0.566326 0.783843 -0.254686
0.674609 0.702046 -0.228109
0.769992 0.606825 -0.197169
0.850651 0.5 -0.16246
0.915043 0.383614 -0.124644
0.961938 0.259892 -0.084444
0.990439 0.1312 -0.0426296
0.343115 0.915043 -0.212056
0.232454 0.961938 -0.143665
0.117349 0.990439 -0.0725258
0 1 0
-0.117349 0.990439 0.0725258
-0.232454 0.961938 0.143665
-0.343115 0.915043 0.212056
0.566326 0.484442 0.666777
0.674609 0.433889 0.597196
0.769992 0.375039 0.516196
0.850651 0.309017 0.425325
0.915043 0.237086 0.326321
0.961938 0.160622 0.221077
0.990439 0.0810863 0.111606
0.343115 0.484442 0.804729
0.232454 0.433889 0.870463
0.117349 0.375039 0.919552
8.05425e-17 0.309017 0.951057
-0.117349 0.237086 0.964375
-0.232454 0.160622 0.959253
-0.343115 0.0810863 0.935787
0.566326 -0.484442 0.666777
0.674609 -0.433889 0.597196
0.769992 -0.375039 0.516196
0.850651 -0.309017 0.425325
0.915043 -0.237086 0.326321
0.961938 -0.160622 0.221077
0.990439 -0.0810863 0.111606
0.343115 -0.615642 0.709406
0.232454 -0.69378 0.68164
0.117349 -0.758652 0.64084
-1.74769e-16 -0.809017 0.587785
-0.117349 -0.843911 0.523491
-0.232454 -0.862668 0.449186
-0.343115 -0.864929 0.366292
0.566326 -0.783843 -0.254686
0.674609 -0.702046 -0.228109
0.769992 -0.606825 -0.197169
0.850651 -0.5 -0.16246
0.915043 -0.383614 -0.124644
0.961938 -0.259892 -0.084444
0.990439 -0.1312 -0.0426296
0.343115 -0.864929 -0.366292
0.232454 -0.862668 -0.449186
0.117349 -0.843911 -0.523491
1.40075e-16 -0.809017 -0.587785
-0.117349 -0.758652 -0.64084
-0.232454 -0.69378 -0.68164
-0.343115 -0.615642 -0.709406
-0.343115 0.615642 -0.709406
-0.232454 0.69378 -0.68164
-0.117349 0.758652 -0.64084
1.74769e-16 0.809017 -0.587785
0.117349 0.843911 -0.523491
0.232454 0.862668 -0.449186
0.343115 0.864929 -0.366292
-0.566326 0.484442 -0.666777
-0.674609 0.433889 -0.597196
-0.769992 0.375039 -0.516196
-0.850651 0.309017 -0.425325
-0.915043 0.237086 -0.326321
-0.961938 0.160622 -0.221077
-0.990439 0.0810863 -0.111606
-0.343115 0.864929 0.366292
-0.232454 0.862668 0.449186
-0.117349 0.843911 0.523491
-1.40075e-16 0.809017 0.587785
0.117349 0.758652 0.64084
0.232454 0.69378 0.68164
0.343115 0.615642 0.709406
-0.566326 0.783843 0.254686
-0.674609 0.702046 0.228109
-0.769992 0.606825 0.197169
-0.850651 0.5 0.16246
-0.915043 0.383614 0.124644
-0.961938 0.259892 0.084444
-0.990439 0.1312 0.0426296
-0.343115 -0.0810863 0.935787
-0.232454 -0.160622 0.959253
-0.117349 -0.237086 0.964375
8.05425e-17 -0.309017 0.951057
0.117349 -0.375039 0.919552
0.232454 -0.433889 0.870463
0.343115 -0.484442 0.804729
-0.566326 0 0.824181
-0.674609 0 0.738175
-0.769992 0 0.638054
-0.850651 0 0.525731
-0.915043 0 0.403355
-0.961938 0 0.273267
-0.990439 0 0.137952
-0.343115 -0.915043 0.212056
-0.232454 -0.961938 0.143665
-0.117349 -0.990439 0.0725258
0 -1 0
0.117349 -0.990439 -0.0725258
0.232454 -0.961938 -0.143665
0.343115 -0.915043 -0.212056
-0.566326 -0.783843 0.254686
-0.674609 -0.702046 0.228109
-0.769992 -0.606825 0.197169
-0.850651 -0.5 0.16246
-0.915043 -0.383614 0.124644
-0.961938 -0.259892 0.084444
-0.990439 -0.1312 0.0426296
-0.343115 -0.484442 -0.804729
-0.232454 -0.433889 -0.870463
-0.117349 -0.375039 -0.919552
-8.05425e-17 -0.309017 -0.951057
0.117349 -0.237086 -0.964375
0.232454 -0.160622 -0.959253
0.343115 -0.0810863 -0.935787
-0.566326 -0.484442 -0.666777
-0.674609 -0.433889 -0.597196
-0.769992 -0.375039 -0.516196
-0.850651 -0.309017 -0.425325
-0.915043 -0.237086 -0.326321
-0.961938 -0.160622 -0.221077
-0.990439 -0.0810863 -0.111606
0.481067 0.1312 -0.866811
0.600944 0.140295 -0.786882
0.708297 0.146465 -0.690553
0.800887 0.149582 -0.579832
0.876785 0.149582 -0.457026
0.93441 0.146465 -0.324695
0.972559 0.140295 -0.185596
0.373943 0.213023 -0.902656
0.505721 0.259892 -0.822619
0.623341 0.275643 -0.731756
0.727037 0.285237 -0.624545
0.814492 0.288459 -0.503383
0.883751 0.285237 -0.370977
0.933269 0.275643 -0.230282
0.259545 0.293812 -0.919952
0.395145 0.343072 -0.852151
0.520705 0.383614 -0.762697
0.633694 0.402859 -0.660407
0.731728 0.412596 -0.54253
0.812492 0.412596 -0.41185
0.874082 0.402859 -0.27145
0.139919 0.371748 -0.917729
0.276393 0.425325 -0.861803
0.406061 0.46843 -0.784658
0.525731 0.5 -0.688191
0.632456 0.519258 -0.574779
0.723607 0.525731 -0.447214
0.79694 0.519258 -0.308637
0.017317 0.444912 -0.895407
0.151574 0.504286 -0.85013
0.282255 0.551758 -0.78479
0.406274 0.586209 -0.700928
0.520705 0.606825 -0.600525
0.620272 0.622647 -0.477047
0.704077 0.622647 -0.341446
-0.105822 0.511305 -0.852859
0.0231736 0.5773 -0.816203
0.151652 0.630398 -0.761315
0.276742 0.669414 -0.689419
0.395651 0.693476 -0.602122
0.505721 0.702046 -0.501375
0.597928 0.711282 -0.36954
-0.226886 0.568883 -0.790503
-0.105928 0.641468 -0.759801
0.0172371 0.700683 -0.713264
0.140043 0.745295 -0.651861
0.25993 0.774374 -0.576872
0.3744 0.787313 -0.48986
0.481067 0.783843 -0.392638
0.481067 0.864929 -0.14308
0.600944 0.791723 -0.109732
0.708297 0.702015 -0.0740965
0.800887 0.597677 -0.0369168
0.876785 0.480881 0.00103237
0.93441 0.354063 0.03896
0.972559 0.219866 0.0760756
0.373943 0.924305 -0.0763393
0.505721 0.862668 -0.00703145
0.623341 0.781119 0.0360274
0.727037 0.682121 0.0782814
0.814492 0.567885 0.118787
0.883751 0.440963 0.156639
0.933269 0.30419 0.190991
0.259545 0.965719 -0.00484882
0.395145 0.916459 0.0629514
0.520705 0.843911 0.129152
0.633694 0.752574 0.179064
0.731728 0.643476 0.224751
0.812492 0.519192 0.265134
0.874082 0.382654 0.299259
0.139919 0.987688 0.0699596
0.276393 0.951057 0.138197
0.406061 0.891007 0.203031
0.525731 0.809017 0.262866
0.632456 0.707107 0.316228
0.723607 0.587785 0.361803
0.79694 0.45399 0.39847
0.017317 0.989068 0.146441
0.151574 0.964355 0.2169
0.282255 0.916882 0.28224
0.406274 0.847771 0.340919
0.520705 0.758652 0.391553
0.620272 0.646107 0.444757
0.704077 0.517143 0.48666
-0.105822 0.969119 0.222732
0.0231736 0.954651 0.296824
0.151652 0.918857 0.364285
0.276742 0.862537 0.423608
0.395651 0.786948 0.473469
0.505721 0.69378 0.512752
0.597928 0.571252 0.562275
-0.226886 0.927608 0.296761
-0.105928 0.920839 0.375281
0.0172371 0.894878 0.445979
0.140043 0.850266 0.507382
0.25993 0.787933 0.55821
0.3744 0.709178 0.597404
0.481067 0.615642 0.624147
0.481067 0.403355 0.778382
0.600944 0.349017 0.719064
0.708297 0.287405 0.644759
0.800887 0.219802 0.557016
0.876785 0.147619 0.457664
0.93441 0.0723584 0.348773
0.972559 -0.0044099 0.232614
0.373943 0.358229 0.855476
0.505721 0.273267 0.818274
0.623341 0.207115 0.754022
0.727037 0.136337 0.672926
0.814492 0.0625131 0.576798
0.883751 -0.0127071 0.467784
0.933269 -0.0876435 0.348321
0.259545 0.303035 0.916955
0.395145 0.223331 0.891057
0.520705 0.137952 0.842518
0.633694 0.0622578 0.771075
0.731728 -0.0149059 0.681434
0.812492 -0.0917178 0.575712
0.874082 -0.166365 0.456402
0.139919 0.238677 0.960966
0.276393 0.16246 0.947214
0.406061 0.0822425 0.910138
0.525731 -3.46945e-17 0.850651
0.632456 -0.0822425 0.770218
0.723607 -0.16246 0.67082
0.79694 -0.238677 0.554905
0.017317 0.166365 0.985912
0.151574 0.0917178 0.984181
0.282255 0.0149059 0.959224
0.406274 -0.0622578 0.911628
0.520705 -0.137952 0.842518
0.620272 -0.223331 0.751922
0.704077 -0.303035 0.642219
-0.105822 0.0876435 0.990515
0.0231736 0.0127071 0.999651
0.151652 -0.0625131 0.986455
0.276742 -0.136337 0.951223
0.395651 -0.207115 0.894742
0.505721 -0.273267 0.818274
0.597928 -0.358229 0.717045
-0.226886 0.0044099 0.973911
-0.105928 -0.0723584 0.991738
0.0172371 -0.147619 0.988894
0.140043 -0.219802 0.96544
0.25993 -0.287405 0.921865
0.3744 -0.349017 0.859076
0.481067 -0.403355 0.778382
0.481067 -0.615642 0.624147
0.600944 -0.576018 0.554138
0.708297 -0.52439 0.47258
0.800887 -0.461831 0.381172
0.876785 -0.389648 0.28182
0.93441 -0.309343 0.176594
0.972559 -0.222591 0.0676875
0.373943 -0.702907 0.605052
0.505721 -0.69378 0.512752
0.623341 -0.653115 0.429984
0.727037 -0.59786 0.33761
0.814492 -0.52925 0.237694
0.883751 -0.448816 0.132468
0.933269 -0.358357 0.0242833
0.259545 -0.778433 0.571558
0.395145 -0.778433 0.487752
0.520705 -0.758652 0.391553
0.633694 -0.714097 0.297486
0.731728 -0.652689 0.196398
0.812492 -0.575877 0.0906758
0.874082 -0.485474 -0.0171867
0.139919 -0.840178 0.52395
0.276393 -0.850651 0.447214
0.406061 -0.840178 0.359465
0.525731 -0.809017 0.262866
0.632456 -0.757935 0.159793
0.723607 -0.688191 0.0527864
0.79694 -0.601501 -0.0555203
0.017317 -0.886248 0.462886
0.151574 -0.90767 0.391358
0.282255 -0.90767 0.310593
0.406274 -0.886248 0.222498
0.520705 -0.843911 0.129152
0.620272 -0.784133 0.019956
0.704077 -0.704429 -0.089747
-0.105822 -0.914953 0.38944
0.0231736 -0.946798 0.320994
0.151652 -0.957492 0.245378
0.276742 -0.946798 0.16428
0.395651 -0.914953 0.0795124
0.505721 -0.862668 -0.00703145
0.597928 -0.792649 -0.119117
-0.226886 -0.924882 0.305149
-0.105928 -0.965558 0.237647
0.0172371 -0.986111 0.165191
0.140043 -0.986111 0.0892932
0.25993 -0.965558 0.0115338
0.3744 -0.924882 -0.0664659
0.481067 -0.864929 -0.14308
0.481067 -0.783843 -0.392638
0.600944 -0.705016 -0.376588
0.708297 -0.611495 -0.352689
0.800887 -0.50523 -0.321439
0.876785 -0.388434 -0.28349
0.93441 -0.263543 -0.239632
0.972559 -0.133159 -0.19078
0.373943 -0.792649 -0.481533
0.505721 -0.702046 -0.501375
0.623341 -0.610763 -0.488277
0.727037 -0.505835 -0.464272
0.814492 -0.389607 -0.429895
[...]
CELL_DATA 1280
SCALARS ds float
LOOKUP_TABLE default
0.00908284
0.00908284
0.00991861
0.0097147
0.0104292
0.0101437
0.0107396
0.0103605
0.0108438
0.0103605
0.0107396
0.0101437
0.0104292
0.0097147
0.00991861
0.00908284
0.00911426
0.00920261
0.00911426
0.00921817
0.00990919
0.00977882
0.0103468
0.0101205
0.010568
0.0102353
0.010568
0.0101205
0.0103468
0.00977882
0.00990919
0.00921817
0.00916058
0.0093525
0.0092814
0.0093525
0.00916058
0.0092647
0.0098164
0.00973103
0.0101593
0.00996707
0.0102745
0.00996707
0.0101593
0.00973103
0.0098164
0.0092647
0.00921204
0.00951439
0.0094529
0.00963334
0.0094529
0.00951439
0.00921204
0.0092537
0.00967558
0.00961122
0.00991022
0.00973141
0.00991022
0.00961122
0.00967558
0.0092537
0.0092537
0.00967558
0.00961122
0.00991022
0.00973141
0.00991022
0.00961122
0.00967558
0.0092537
0.00921204
0.00951439
0.0094529
0.00963334
0.0094529
0.00951439
0.00921204
0.0092647
0.0098164
0.00973103
0.0101593
0.00996707
0.0102745
0.00996707
0.0101593
0.00973103
0.0098164
0.0092647
0.00916058
0.0093525
0.0092814
0.0093525
0.00916058
0.00921817
0.00990919
0.00977882
0.0103468
0.0101205
0.010568
0.0102353
0.010568
0.0101205
0.0103468
0.00977882
0.00990919
0.00921817
0.00911426
0.00920261
0.00911426
0.00908284
0.00991861
0.0097147
0.0104292
0.0101437
0.0107396
0.0103605
0.0108438
0.0103605
0.0107396
0.0101437
0.0104292
0.0097147
0.00991861
0.00908284
0.00908284
0.00908284
0.00908284
0.00991861
0.0097147
0.0104292
0.0101437
0.0107396
0.0103605
0.0108438
0.0103605
0.0107396
0.0101437
0.0104292
0.0097147
0.00991861
0.00908284
0.00911426
0.00920261
0.00911426
0.00921817
0.00990919
0.00977882
0.0103468
0.0101205
0.010568
0.0102353
0.010568
0.0101205
0.0103468
0.00977882
0.00990919
0.00921817
0.00916058
0.0093525
0.0092814
0.0093525
0.00916058
0.0092647
0.0098164
0.00973103
0.0101593
0.00996707
0.0102745
0.00996707
0.0101593
0.00973103
0.0098164
0.0092647
0.00921204
0.00951439
0.0094529
0.00963334
0.0094529
0.00951439
0.00921204
0.0092537
0.00967558
0.00961122
0.00991022
0.00973141
0.00991022
0.00961122
0.00967558
0.0092537
0.0092537
0.00967558
0.00961122
0.00991022
0.00973141
0.00991022
0.00961122
0.00967558
0.0092537
0.00921204
0.00951439
0.0094529
0.00963334
0.0094529
0.00951439
0.00921204
0.0092647
0.0098164
0.00973103
0.0101593
0.00996707
0.0102745
0.00996707
0.0101593
0.00973103
0.0098164
0.0092647
0.00916058
0.0093525
0.0092814
0.0093525
0.00916058
0.00921817
0.00990919
0.00977882
0.0103468
0.0101205
0.010568
0.0102353
0.010568
0.0101205
0.0103468
0.00977882
0.00990919
0.00921817
0.00911426
0.00920261
0.00911426
0.00908284
0.00991861
0.0097147
0.0104292
0.0101437
0.0107396
0.0103605
0.0108438
0.0103605
0.0107396
0.0101437
0.0104292
0.0097147
0.00991861
0.00908284
0.00908284
0.00908284
0.00908284
0.00991861
0.0097147
0.0104292
0.0101437
0.0107396
0.0103605
0.0108438
0.0103605
0.0107396
0.0101437
0.0104292
0.0097147
0.00991861
0.00908284
0.00911426
0.00920261
0.00911426
0.00921817
0.00990919
0.00977882
0.0103468
0.0101205
0.010568
0.0102353
0.010568
0.0101205
0.0103468
0.00977882
0.00990919
0.00921817
0.00916058
0.0093525
0.0092814
0.0093525
0.00916058
0.0092647
0.0098164
0.00973103
0.0101593
0.00996707
0.0102745
0.00996707
0.0101593
0.00973103
0.0098164
0.0092647
0.00921204
0.00951439
0.0094529
0.00963334
0.0094529
0.00951439
0.00921204
0.0092537
0.00967558
0.00961122
0.00991022
0.00973141
0.00991022
0.00961122
0.00967558
0.0092537
0.0092537
0.00967558
0.00961122
0.00991022
0.00973141
0.00991022
0.00961122
0.00967558
0.0092537
0.00921204
0.00951439
0.0094529
0.00963334
0.0094529
0.00951439
0.00921204
0.0092647
0.0098164
0.00973103
0.0101593
0.00996707
0.0102745
0.00996707
0.0101593
0.00973103
0.0098164
0.0092647
0.00916058
0.0093525
0.0092814
0.0093525
0.00916058
0.00921817
0.00990919
0.00977882
0.0103468
0.0101205
0.010568
0.0102353
0.010568
0.0101205
0.0103468
0.00977882
0.00990919
0.00921817
0.00911426
0.00920261
0.00911426
0.00908284
0.00991861
0.0097147
0.0104292
0.0101437
0.0107396
0.0103605
0.0108438
0.0103605
0.0107396
0.0101437
0.0104292
0.0097147
0.00991861
0.00908284
0.00908284
0.00908284
0.00908284
0.00991861
0.0097147
0.0104292
0.0101437
0.0107396
0.0103605
0.0108438
0.0103605
0.0107396
0.0101437
0.0104292
0.0097147
0.00991861
0.00908284
0.00911426
0.00920261
0.00911426
0.00921817
0.00990919
0.00977882
0.0103468
0.0101205
0.010568
0.0102353
0.010568
0.0101205
0.0103468
0.00977882
0.00990919
0.00921817
0.00916058
0.0093525
0.0092814
0.0093525
0.00916058
0.0092647
0.0098164
0.00973103
0.0101593
0.00996707
0.0102745
0.00996707
0.0101593
0.00973103
0.0098164
0.0092647
0.00921204
0.00951439
0.0094529
0.00963334
0.0094529
0.00951439
0.00921204
0.0092537
0.00967558
0.00961122
0.00991022
0.00973141
0.00991022
0.00961122
0.00967558
0.0092537
0.0092537
0.00967558
0.00961122
0.00991022
0.00973141
0.00991022
0.00961122
0.00967558
0.0092537
0.00921204
0.00951439
0.0094529
0.00963334
0.0094529
0.00951439
0.00921204
0.0092647
0.0098164
0.00973103
0.0101593
0.00996707
0.0102745
0.00996707
0.0101593
0.00973103
0.0098164
0.0092647
0.00916058
0.0093525
0.0092814
0.0093525
0.00916058
0.00921817
0.00990919
0.00977882
0.0103468
0.0101205
0.010568
0.0102353
0.010568
0.0101205
0.0103468
0.00977882
0.00990919
0.00921817
0.00911426
0.00920261
0.00911426
0.00908284
0.00991861
0.0097147
0.0104292
0.0101437
0.0107396
0.0103605
0.0108438
0.0103605
0.0107396
0.0101437
0.0104292
0.0097147
0.00991861
0.00908284
0.00908284
0.00908284
0.00908284
0.00991861
0.0097147
0.0104292
0.0101437
0.0107396
0.0103605
0.0108438
0.0103605
0.0107396
0.0101437
0.0104292
0.0097147
0.00991861
0.00908284
0.00911426
0.00920261
0.00911426
0.00921817
0.00990919
0.00977882
0.0103468
0.0101205
0.010568
0.0102353
0.010568
0.0101205
0.0103468
0.00977882
0.00990919
0.00921817
0.00916058
0.0093525
0.0092814
0.0093525
0.00916058
0.0092647
0.0098164
0.00973103
0.0101593
0.00996707
0.0102745
0.00996707
0.0101593
0.00973103
0.0098164
0.0092647
0.00921204
0.00951439
0.0094529
0.00963334
0.0094529
0.00951439
0.00921204
0.0092537
0.00967558
0.00961122
0.00991022
0.00973141
0.00991022
0.00961122
0.00967558
0.0092537
0.0092537
0.00967558
0.00961122
0.00991022
0.00973141
0.00991022
0.00961122
0.00967558
0.0092537
0.00921204
0.00951439
0.0094529
0.00963334
0.0094529
0.00951439
0.00921204
0.0092647
0.0098164
0.00973103
0.0101593
0.00996707
0.0102745
0.00996707
0.0101593
0.00973103
0.0098164
0.0092647
0.00916058
0.0093525
0.0092814
0.0093525
0.00916058
0.00921817
0.00990919
0.00977882
0.0103468
0.0101205
0.010568
0.0102353
0.010568
0.0101205
0.0103468
0.00977882
0.00990919
0.00921817
0.00911426
0.00920261
0.00911426
0.00908284
0.00991861
0.0097147
0.0104292
0.0101437
0.0107396
0.0103605
0.0108438
0.0103605
0.0107396
0.0101437
0.0104292
0.0097147
0.00991861
0.00908284
0.00908284
0.00908284
0.00908284
0.00991861
0.0097147
0.0104292
0.0101437
0.0107396
0.0103605
0.0108438
0.0103605
0.0107396
0.0101437
0.0104292
0.0097147
0.00991861
0.00908284
0.00911426
0.00920261
0.00911426
0.00921817
0.00990919
0.00977882
0.0103468
0.0101205
0.010568
0.0102353
0.010568
0.0101205
0.0103468
0.00977882
0.00990919
0.00921817
0.00916058
0.0093525
0.0092814
0.0093525
0.00916058
0.0092647
0.0098164
0.00973103
0.0101593
0.00996707
0.0102745
0.00996707
0.0101593
0.00973103
0.0098164
0.0092647
0.00921204
0.00951439
0.0094529
0.00963334
0.0094529
0.00951439
0.00921204
0.0092537
0.00967558
0.00961122
0.00991022
0.00973141
0.00991022
0.00961122
0.00967558
0.0092537
0.0092537
0.00967558
0.00961122
0.00991022
0.00973141
0.00991022
0.00961122
0.00967558
0.0092537
0.00921204
0.00951439
0.0094529
0.00963334
0.0094529
0.00951439
0.00921204
0.0092647
0.0098164
0.00973103
0.0101593
0.00996707
0.0102745
0.00996707
0.0101593
0.00973103
0.0098164
0.0092647
0.00916058
0.0093525
0.0092814
0.0093525
0.00916058
0.00921817
0.00990919
0.00977882
0.0103468
0.0101205
0.010568
0.0102353
0.010568
0.0101205
0.0103468
0.00977882
0.00990919
0.00921817
0.00911426
0.00920261
0.00911426
0.00908284
0.00991861
0.0097147
0.0104292
0.0101437
0.0107396
0.0103605
0.0108438
0.0103605
0.0107396
0.0101437
0.0104292
0.0097147
0.00991861
0.00908284
0.00908284
0.00908284
0.00908284
0.00991861
0.0097147
0.0104292
0.0101437
0.0107396
0.0103605
0.0108438
0.0103605
0.0107396
0.0101437
0.0104292
0.0097147
0.00991861
0.00908284
0.00911426
0.00920261
0.00911426
0.00921817
0.00990919
0.00977882
0.0103468
0.0101205
0.010568
0.0102353
0.010568
0.0101205
0.0103468
0.00977882
0.00990919
0.00921817
0.00916058
0.0093525
0.0092814
0.0093525
0.00916058
0.0092647
0.0098164
0.00973103
0.0101593
0.00996707
0.0102745
0.00996707
0.0101593
0.00973103
0.0098164
0.0092647
0.00921204
0.00951439
0.0094529
0.00963334
0.0094529
0.00951439
0.00921204
0.0092537
0.00967558
0.00961122
0.00991022
0.00973141
0.00991022
0.00961122
0.00967558
0.0092537
0.0092537
0.00967558
0.00961122
0.00991022
0.00973141
0.00991022
0.00961122
0.00967558
0.0092537
0.00921204
0.00951439
0.0094529
0.00963334
0.0094529
0.00951439
0.00921204
0.0092647
0.0098164
0.00973103
0.0101593
0.00996707
0.0102745
0.00996707
0.0101593
0.00973103
0.0098164
0.0092647
0.00916058
0.0093525
0.0092814
0.0093525
0.00916058
0.00921817
0.00990919
0.00977882
0.0103468
0.0101205
0.010568
0.0102353
0.010568
0.0101205
0.0103468
0.00977882
0.00990919
0.00921817
0.00911426
0.00920261
0.00911426
0.00908284
0.00991861
0.0097147
0.0104292
0.0101437
0.0107396
0.0103605
0.0108438
0.0103605
0.0107396
0.0101437
0.0104292
0.0097147
0.00991861
0.00908284
0.00908284
0.00908284
0.00908284
0.00991861
0.0097147
0.0104292
0.0101437
0.0107396
0.0103605
0.0108438
0.0103605
0.0107396
0.0101437
0.0104292
0.0097147
0.00991861
0.00908284
0.00911426
0.00920261
0.00911426
0.00921817
0.00990919
0.00977882
0.0103468
0.0101205
0.010568
0.0102353
0.010568
0.0101205
0.0103468
0.00977882
0.00990919
0.00921817
0.00916058
0.0093525
0.0092814
0.0093525
0.00916058
0.0092647
0.0098164
0.00973103
0.0101593
0.00996707
0.0102745
0.00996707
0.0101593
0.00973103
0.0098164
0.0092647
0.00921204
0.00951439
0.0094529
0.00963334
0.0094529
0.00951439
0.00921204
0.0092537
0.00967558
0.00961122
0.00991022
0.00973141
0.00991022
0.00961122
0.00967558
0.0092537
0.0092537
0.00967558
0.00961122
0.00991022
0.00973141
0.00991022
0.00961122
0.00967558
0.0092537
0.00921204
0.00951439
0.0094529
0.00963334
0.0094529
0.00951439
0.00921204
0.0092647
0.0098164
0.00973103
0.0101593
0.00996707
0.0102745
0.00996707
0.0101593
0.00973103
0.0098164
0.0092647
0.00916058
0.0093525
0.0092814
0.0093525
0.00916058
0.00921817
0.00990919
0.00977882
0.0103468
0.0101205
0.010568
0.0102353
0.010568
0.0101205
0.0103468
0.00977882
0.00990919
0.00921817
0.00911426
0.00920261
0.00911426
0.00908284
0.00991861
0.0097147
0.0104292
0.0101437
0.0107396
0.0103605
0.0108438
0.0103605
0.0107396
0.0101437
0.0104292
0.0097147
0.00991861
0.00908284
0.00908284
0.00908284
0.00908284
0.00991861
0.0097147
0.0104292
0.0101437
0.0107396
0.0103605
0.0108438
0.0103605
0.0107396
0.0101437
0.0104292
0.0097147
0.00991861
0.00908284
0.00911426
0.00920261
0.00911426
0.00921817
0.00990919
0.00977882
0.0103468
0.0101205
0.010568
0.0102353
0.010568
0.0101205
0.0103468
0.00977882
0.00990919
0.00921817
0.00916058
0.0093525
0.0092814
0.0093525
0.00916058
0.0092647
0.0098164
0.00973103
0.0101593
0.00996707
0.0102745
0.00996707
0.0101593
0.00973103
0.0098164
0.0092647
0.00921204
0.00951439
0.0094529
0.00963334
0.0094529
0.00951439
0.00921204
0.0092537
0.00967558
0.00961122
0.00991022
0.00973141
0.00991022
0.00961122
0.00967558
0.0092537
0.0092537
0.00967558
0.00961122
0.00991022
0.00973141
0.00991022
0.00961122
0.00967558
0.0092537
0.00921204
0.00951439
0.0094529
0.00963334
0.0094529
0.00951439
0.00921204
0.0092647
0.0098164
0.00973103
0.0101593
0.00996707
0.0102745
0.00996707
0.0101593
0.00973103
0.0098164
0.0092647
0.00916058
0.0093525
0.0092814
0.0093525
0.00916058
0.00921817
0.00990919
0.00977882
0.0103468
0.0101205
0.010568
0.0102353
0.010568
0.0101205
0.0103468
0.00977882
0.00990919
0.00921817
0.00911426
0.00920261
0.00911426
0.00908284
0.00991861
0.0097147
0.0104292
0.0101437
0.0107396
0.0103605
0.0108438
0.0103605
0.0107396
0.0101437
0.0104292
0.0097147
0.00991861
0.00908284
0.00908284
0.00908284
0.00908284
0.00991861
0.0097147
0.0104292
0.0101437
0.0107396
0.0103605
0.0108438
0.0103605
0.0107396
0.0101437
0.0104292
0.0097147
0.00991861
0.00908284
0.00911426
0.00920261
0.00911426
0.00921817
0.00990919
0.00977882
0.0103468
0.0101205
0.010568
0.0102353
0.010568
0.0101205
0.0103468
0.00977882
0.00990919
0.00921817
0.00916058
0.0093525
0.0092814
0.0093525
0.00916058
0.0092647
0.0098164
0.00973103
0.0101593
0.00996707
0.0102745
0.00996707
0.0101593
0.00973103
0.0098164
0.0092647
0.00921204
0.00951439
0.0094529
0.00963334
0.0094529
0.00951439
0.00921204
0.0092537
0.00967558
0.00961122
0.00991022
0.00973141
0.00991022
0.00961122
0.00967558
0.0092537
0.0092537
0.00967558
0.00961122
0.00991022
0.00973141
0.00991022
0.00961122
0.00967558
0.0092537
0.00921204
0.00951439
0.0094529
0.00963334
0.0094529
0.00951439
0.00921204
0.0092647
0.0098164
0.00973103
0.0101593
0.00996707
0.0102745
0.00996707
0.0101593
0.00973103
0.0098164
0.0092647
0.00916058
0.0093525
0.0092814
0.0093525
0.00916058
0.00921817
0.00990919
0.00977882
0.0103468
0.0101205
0.010568
0.0102353
0.010568
0.0101205
0.0103468
0.00977882
0.00990919
0.00921817
0.00911426
0.00920261
0.00911426
0.00908284
0.00991861
0.0097147
0.0104292
0.0101437
0.0107396
0.0103605
0.0108438
0.0103605
0.0107396
0.0101437
0.0104292
0.0097147
0.00991861
0.00908284
0.00908284
